<?xml version="1.0" encoding="UTF-8"?>

<!-- generated on 2024-08-06 23:22:30 by Eclipse SUMO sumo Version 1.20.0
<configuration xmlns:xsi="http://www.w3.org/2001/XMLSchema-instance" xsi:noNamespaceSchemaLocation="http://sumo.dlr.de/xsd/sumoConfiguration.xsd">

    <input>
        <net-file value="../3intersections_gt.net.xml"/>
        <route-files value="../routes.rou.xml"/>
        <additional-files value="additional.xml"/>
    </input>

    <output>
        <fcd-output value="fcd.xml"/>
        <summary-output value="summary_out_gt.xml"/>
        <tripinfo-output value="tripinfo_out_gt.xml"/>
        <edgedata-output value="travel-times-output_gt.xml"/>
    </output>

    <time>
        <begin value="0"/>
        <end value="1800"/>
        <step-length value="1.0"/>
    </time>

    <random_number>
        <seed value="99"/>
    </random_number>

</configuration>
-->

<fcd-export xmlns:xsi="http://www.w3.org/2001/XMLSchema-instance" xsi:noNamespaceSchemaLocation="http://sumo.dlr.de/xsd/fcd_file.xsd">
    <timestep time="0.00"/>
    <timestep time="1.00">
        <vehicle id="1" x="-121.65" y="164.79" angle="180.21" type="DEFAULT_VEHTYPE" speed="0.00" pos="5.10" lane="62_0" slope="0.00"/>
    </timestep>
    <timestep time="2.00">
        <vehicle id="1" x="-121.66" y="163.06" angle="180.21" type="DEFAULT_VEHTYPE" speed="1.73" pos="6.83" lane="62_0" slope="0.00"/>
        <vehicle id="2" x="31.15" y="168.05" angle="180.00" type="DEFAULT_VEHTYPE" speed="0.00" pos="5.10" lane="73_0" slope="0.00"/>
    </timestep>
    <timestep time="3.00">
        <vehicle id="1" x="-121.67" y="159.68" angle="180.21" type="DEFAULT_VEHTYPE" speed="3.39" pos="10.21" lane="62_0" slope="0.00"/>
        <vehicle id="2" x="31.15" y="166.16" angle="180.00" type="DEFAULT_VEHTYPE" speed="1.89" pos="6.99" lane="73_0" slope="0.00"/>
        <vehicle id="3" x="185.49" y="166.98" angle="180.72" type="DEFAULT_VEHTYPE" speed="0.00" pos="5.10" lane="84_0" slope="0.00"/>
    </timestep>
    <timestep time="4.00">
        <vehicle id="1" x="-121.69" y="154.32" angle="180.21" type="DEFAULT_VEHTYPE" speed="5.35" pos="15.57" lane="62_0" slope="0.00"/>
        <vehicle id="2" x="31.15" y="162.54" angle="180.00" type="DEFAULT_VEHTYPE" speed="3.62" pos="10.61" lane="73_0" slope="0.00"/>
        <vehicle id="3" x="185.46" y="165.05" angle="180.72" type="DEFAULT_VEHTYPE" speed="1.93" pos="7.03" lane="84_0" slope="0.00"/>
        <vehicle id="4" x="313.62" y="22.27" angle="270.35" type="DEFAULT_VEHTYPE" speed="0.00" pos="5.10" lane="54_0" slope="0.00"/>
    </timestep>
    <timestep time="5.00">
        <vehicle id="1" x="-121.71" y="147.45" angle="180.21" type="DEFAULT_VEHTYPE" speed="6.87" pos="22.44" lane="62_0" slope="0.00"/>
        <vehicle id="2" x="31.15" y="156.68" angle="180.00" type="DEFAULT_VEHTYPE" speed="5.86" pos="16.47" lane="73_0" slope="0.00"/>
        <vehicle id="3" x="185.41" y="161.24" angle="180.72" type="DEFAULT_VEHTYPE" speed="3.81" pos="10.84" lane="84_0" slope="0.00"/>
        <vehicle id="4" x="311.44" y="22.28" angle="270.35" type="DEFAULT_VEHTYPE" speed="2.18" pos="7.28" lane="54_0" slope="0.00"/>
        <vehicle id="5" x="-118.45" y="-112.61" angle="359.78" type="DEFAULT_VEHTYPE" speed="0.00" pos="5.10" lane="92_0" slope="0.00"/>
    </timestep>
    <timestep time="6.00">
        <vehicle id="1" x="-121.74" y="139.06" angle="180.21" type="DEFAULT_VEHTYPE" speed="8.40" pos="30.83" lane="62_0" slope="0.00"/>
        <vehicle id="2" x="31.15" y="148.75" angle="180.00" type="DEFAULT_VEHTYPE" speed="7.92" pos="24.40" lane="73_0" slope="0.00"/>
        <vehicle id="3" x="185.34" y="155.57" angle="180.72" type="DEFAULT_VEHTYPE" speed="5.67" pos="16.51" lane="84_0" slope="0.00"/>
        <vehicle id="4" x="307.65" y="22.31" angle="270.35" type="DEFAULT_VEHTYPE" speed="3.79" pos="11.07" lane="54_0" slope="0.00"/>
        <vehicle id="5" x="-118.46" y="-110.79" angle="359.78" type="DEFAULT_VEHTYPE" speed="1.82" pos="6.92" lane="92_0" slope="0.00"/>
        <vehicle id="6" x="35.13" y="-111.79" angle="359.66" type="DEFAULT_VEHTYPE" speed="0.00" pos="5.10" lane="103_0" slope="0.00"/>
    </timestep>
    <timestep time="7.00">
        <vehicle id="1" x="-121.78" y="129.01" angle="180.21" type="DEFAULT_VEHTYPE" speed="10.04" pos="40.88" lane="62_0" slope="0.00"/>
        <vehicle id="2" x="31.15" y="138.78" angle="180.00" type="DEFAULT_VEHTYPE" speed="9.97" pos="34.37" lane="73_0" slope="0.00"/>
        <vehicle id="3" x="185.25" y="148.54" angle="180.72" type="DEFAULT_VEHTYPE" speed="7.03" pos="23.54" lane="84_0" slope="0.00"/>
        <vehicle id="4" x="302.24" y="22.34" angle="270.35" type="DEFAULT_VEHTYPE" speed="5.41" pos="16.48" lane="54_0" slope="0.00"/>
        <vehicle id="5" x="-118.47" y="-106.88" angle="359.78" type="DEFAULT_VEHTYPE" speed="3.91" pos="10.83" lane="92_0" slope="0.00"/>
        <vehicle id="6" x="35.12" y="-109.67" angle="359.66" type="DEFAULT_VEHTYPE" speed="2.12" pos="7.22" lane="103_0" slope="0.00"/>
        <vehicle id="7" x="186.85" y="-113.98" angle="0.00" type="DEFAULT_VEHTYPE" speed="0.00" pos="5.10" lane="114_0" slope="0.00"/>
    </timestep>
    <timestep time="8.00">
        <vehicle id="1" x="-121.83" y="116.41" angle="180.21" type="DEFAULT_VEHTYPE" speed="12.60" pos="53.48" lane="62_0" slope="0.00"/>
        <vehicle id="2" x="31.15" y="126.89" angle="180.00" type="DEFAULT_VEHTYPE" speed="11.89" pos="46.26" lane="73_0" slope="0.00"/>
        <vehicle id="3" x="185.13" y="138.95" angle="180.72" type="DEFAULT_VEHTYPE" speed="9.59" pos="33.13" lane="84_0" slope="0.00"/>
        <vehicle id="4" x="294.64" y="22.39" angle="270.35" type="DEFAULT_VEHTYPE" speed="7.60" pos="24.08" lane="54_0" slope="0.00"/>
        <vehicle id="5" x="-118.49" y="-101.25" angle="359.78" type="DEFAULT_VEHTYPE" speed="5.63" pos="16.46" lane="92_0" slope="0.00"/>
        <vehicle id="6" x="35.09" y="-105.19" angle="359.66" type="DEFAULT_VEHTYPE" speed="4.47" pos="11.70" lane="103_0" slope="0.00"/>
        <vehicle id="7" x="186.85" y="-112.13" angle="0.00" type="DEFAULT_VEHTYPE" speed="1.85" pos="6.95" lane="114_0" slope="0.00"/>
        <vehicle id="8" x="-264.45" y="21.45" angle="90.42" type="DEFAULT_VEHTYPE" speed="0.00" pos="5.10" lane="12_0" slope="0.00"/>
    </timestep>
    <timestep time="9.00">
        <vehicle id="1" x="-121.88" y="102.14" angle="180.21" type="DEFAULT_VEHTYPE" speed="14.27" pos="67.75" lane="62_0" slope="0.00"/>
        <vehicle id="2" x="31.15" y="114.17" angle="180.00" type="DEFAULT_VEHTYPE" speed="12.73" pos="58.98" lane="73_0" slope="0.00"/>
        <vehicle id="3" x="184.99" y="128.04" angle="180.72" type="DEFAULT_VEHTYPE" speed="10.91" pos="44.04" lane="84_0" slope="0.00"/>
        <vehicle id="4" x="285.58" y="22.44" angle="270.35" type="DEFAULT_VEHTYPE" speed="9.06" pos="33.14" lane="54_0" slope="0.00"/>
        <vehicle id="5" x="-118.52" y="-93.63" angle="359.78" type="DEFAULT_VEHTYPE" speed="7.63" pos="24.08" lane="92_0" slope="0.00"/>
        <vehicle id="6" x="35.06" y="-98.94" angle="359.66" type="DEFAULT_VEHTYPE" speed="6.25" pos="17.95" lane="103_0" slope="0.00"/>
        <vehicle id="7" x="186.85" y="-107.89" angle="0.00" type="DEFAULT_VEHTYPE" speed="4.24" pos="11.19" lane="114_0" slope="0.00"/>
        <vehicle id="8" x="-263.00" y="21.44" angle="90.42" type="DEFAULT_VEHTYPE" speed="1.45" pos="6.55" lane="12_0" slope="0.00"/>
        <vehicle id="9" x="-121.65" y="164.79" angle="180.21" type="DEFAULT_VEHTYPE" speed="0.00" pos="5.10" lane="62_0" slope="0.00"/>
    </timestep>
    <timestep time="10.00">
        <vehicle id="1" x="-121.93" y="88.01" angle="180.21" type="DEFAULT_VEHTYPE" speed="14.13" pos="81.88" lane="62_0" slope="0.00"/>
        <vehicle id="10" x="31.15" y="168.05" angle="180.00" type="DEFAULT_VEHTYPE" speed="0.00" pos="5.10" lane="73_0" slope="0.00"/>
        <vehicle id="2" x="31.15" y="100.53" angle="180.00" type="DEFAULT_VEHTYPE" speed="13.63" pos="72.62" lane="73_0" slope="0.00"/>
        <vehicle id="3" x="184.83" y="114.75" angle="180.72" type="DEFAULT_VEHTYPE" speed="13.29" pos="57.33" lane="84_0" slope="0.00"/>
        <vehicle id="4" x="274.92" y="22.51" angle="270.35" type="DEFAULT_VEHTYPE" speed="10.66" pos="43.80" lane="54_0" slope="0.00"/>
        <vehicle id="5" x="-118.56" y="-83.79" angle="359.78" type="DEFAULT_VEHTYPE" speed="9.84" pos="33.92" lane="92_0" slope="0.00"/>
        <vehicle id="6" x="35.01" y="-91.31" angle="359.66" type="DEFAULT_VEHTYPE" speed="7.63" pos="25.58" lane="103_0" slope="0.00"/>
        <vehicle id="7" x="186.85" y="-101.23" angle="0.00" type="DEFAULT_VEHTYPE" speed="6.66" pos="17.85" lane="114_0" slope="0.00"/>
        <vehicle id="8" x="-259.15" y="21.41" angle="90.42" type="DEFAULT_VEHTYPE" speed="3.84" pos="10.40" lane="12_0" slope="0.00"/>
        <vehicle id="9" x="-121.66" y="162.44" angle="180.21" type="DEFAULT_VEHTYPE" speed="2.35" pos="7.45" lane="62_0" slope="0.00"/>
    </timestep>
    <timestep time="11.00">
        <vehicle id="1" x="-121.99" y="73.57" angle="180.21" type="DEFAULT_VEHTYPE" speed="14.44" pos="96.32" lane="62_0" slope="0.00"/>
        <vehicle id="10" x="31.15" y="165.65" angle="180.00" type="DEFAULT_VEHTYPE" speed="2.40" pos="7.50" lane="73_0" slope="0.00"/>
        <vehicle id="11" x="185.49" y="166.98" angle="180.72" type="DEFAULT_VEHTYPE" speed="0.00" pos="5.10" lane="84_0" slope="0.00"/>
        <vehicle id="2" x="31.15" y="86.71" angle="180.00" type="DEFAULT_VEHTYPE" speed="13.82" pos="86.44" lane="73_0" slope="0.00"/>
        <vehicle id="3" x="184.64" y="99.80" angle="180.72" type="DEFAULT_VEHTYPE" speed="14.95" pos="72.28" lane="84_0" slope="0.00"/>
        <vehicle id="4" x="262.55" y="22.59" angle="270.35" type="DEFAULT_VEHTYPE" speed="12.36" pos="56.17" lane="54_0" slope="0.00"/>
        <vehicle id="5" x="-118.61" y="-71.76" angle="359.78" type="DEFAULT_VEHTYPE" speed="12.03" pos="45.95" lane="92_0" slope="0.00"/>
        <vehicle id="6" x="34.95" y="-81.12" angle="359.66" type="DEFAULT_VEHTYPE" speed="10.19" pos="35.77" lane="103_0" slope="0.00"/>
        <vehicle id="7" x="186.85" y="-92.81" angle="0.00" type="DEFAULT_VEHTYPE" speed="8.42" pos="26.27" lane="114_0" slope="0.00"/>
        <vehicle id="8" x="-253.98" y="21.38" angle="90.42" type="DEFAULT_VEHTYPE" speed="5.17" pos="15.57" lane="12_0" slope="0.00"/>
        <vehicle id="9" x="-121.67" y="158.76" angle="180.21" type="DEFAULT_VEHTYPE" speed="3.68" pos="11.13" lane="62_0" slope="0.00"/>
    </timestep>
    <timestep time="12.00">
        <vehicle id="1" x="-122.04" y="58.78" angle="180.21" type="DEFAULT_VEHTYPE" speed="14.79" pos="111.11" lane="62_0" slope="0.00"/>
        <vehicle id="10" x="31.15" y="160.90" angle="180.00" type="DEFAULT_VEHTYPE" speed="4.75" pos="12.25" lane="73_0" slope="0.00"/>
        <vehicle id="11" x="185.46" y="165.07" angle="180.72" type="DEFAULT_VEHTYPE" speed="1.91" pos="7.01" lane="84_0" slope="0.00"/>
        <vehicle id="12" x="313.62" y="22.27" angle="270.35" type="DEFAULT_VEHTYPE" speed="0.00" pos="5.10" lane="54_0" slope="0.00"/>
        <vehicle id="2" x="31.15" y="73.04" angle="180.00" type="DEFAULT_VEHTYPE" speed="13.67" pos="100.11" lane="73_0" slope="0.00"/>
        <vehicle id="3" x="184.46" y="85.74" angle="180.72" type="DEFAULT_VEHTYPE" speed="14.06" pos="86.34" lane="84_0" slope="0.00"/>
        <vehicle id="4" x="248.07" y="22.68" angle="270.35" type="DEFAULT_VEHTYPE" speed="14.48" pos="70.65" lane="54_0" slope="0.00"/>
        <vehicle id="5" x="-118.66" y="-58.75" angle="359.78" type="DEFAULT_VEHTYPE" speed="13.01" pos="58.97" lane="92_0" slope="0.00"/>
        <vehicle id="6" x="34.89" y="-70.48" angle="359.66" type="DEFAULT_VEHTYPE" speed="10.65" pos="46.41" lane="103_0" slope="0.00"/>
        <vehicle id="7" x="186.85" y="-81.99" angle="0.00" type="DEFAULT_VEHTYPE" speed="10.82" pos="37.09" lane="114_0" slope="0.00"/>
        <vehicle id="8" x="-247.19" y="21.33" angle="90.42" type="DEFAULT_VEHTYPE" speed="6.79" pos="22.36" lane="12_0" slope="0.00"/>
        <vehicle id="9" x="-121.69" y="153.24" angle="180.21" type="DEFAULT_VEHTYPE" speed="5.53" pos="16.65" lane="62_0" slope="0.00"/>
    </timestep>
    <timestep time="13.00">
        <vehicle id="1" x="-122.09" y="44.95" angle="180.21" type="DEFAULT_VEHTYPE" speed="13.83" pos="124.94" lane="62_0" slope="0.00"/>
        <vehicle id="10" x="31.15" y="153.82" angle="180.00" type="DEFAULT_VEHTYPE" speed="7.08" pos="19.33" lane="73_0" slope="0.00"/>
        <vehicle id="11" x="185.41" y="160.95" angle="180.72" type="DEFAULT_VEHTYPE" speed="4.13" pos="11.14" lane="84_0" slope="0.00"/>
        <vehicle id="12" x="311.74" y="22.28" angle="270.35" type="DEFAULT_VEHTYPE" speed="1.88" pos="6.98" lane="54_0" slope="0.00"/>
        <vehicle id="13" x="-118.45" y="-112.61" angle="359.78" type="DEFAULT_VEHTYPE" speed="0.00" pos="5.10" lane="92_0" slope="0.00"/>
        <vehicle id="2" x="31.15" y="60.09" angle="180.00" type="DEFAULT_VEHTYPE" speed="12.95" pos="113.06" lane="73_0" slope="0.00"/>
        <vehicle id="3" x="184.29" y="71.88" angle="180.72" type="DEFAULT_VEHTYPE" speed="13.87" pos="100.21" lane="84_0" slope="0.00"/>
        <vehicle id="4" x="234.47" y="22.76" angle="270.35" type="DEFAULT_VEHTYPE" speed="13.61" pos="84.25" lane="54_0" slope="0.00"/>
        <vehicle id="5" x="-118.71" y="-45.46" angle="359.78" type="DEFAULT_VEHTYPE" speed="13.29" pos="72.26" lane="92_0" slope="0.00"/>
        <vehicle id="6" x="34.83" y="-59.86" angle="359.66" type="DEFAULT_VEHTYPE" speed="10.62" pos="57.03" lane="103_0" slope="0.00"/>
        <vehicle id="7" x="186.85" y="-69.24" angle="0.00" type="DEFAULT_VEHTYPE" speed="12.75" pos="49.84" lane="114_0" slope="0.00"/>
        <vehicle id="8" x="-238.91" y="21.27" angle="90.42" type="DEFAULT_VEHTYPE" speed="8.27" pos="30.64" lane="12_0" slope="0.00"/>
        <vehicle id="9" x="-121.72" y="145.78" angle="180.21" type="DEFAULT_VEHTYPE" speed="7.46" pos="24.11" lane="62_0" slope="0.00"/>
    </timestep>
    <timestep time="14.00">
        <vehicle id="1" x="-122.13" y="35.62" angle="180.21" type="DEFAULT_VEHTYPE" speed="9.33" pos="134.27" lane="62_0" slope="0.00"/>
        <vehicle id="10" x="31.15" y="144.73" angle="180.00" type="DEFAULT_VEHTYPE" speed="9.09" pos="28.42" lane="73_0" slope="0.00"/>
        <vehicle id="11" x="185.33" y="154.97" angle="180.72" type="DEFAULT_VEHTYPE" speed="5.98" pos="17.11" lane="84_0" slope="0.00"/>
        <vehicle id="12" x="308.42" y="22.30" angle="270.35" type="DEFAULT_VEHTYPE" speed="3.33" pos="10.30" lane="54_0" slope="0.00"/>
        <vehicle id="13" x="-118.46" y="-110.23" angle="359.78" type="DEFAULT_VEHTYPE" speed="2.38" pos="7.48" lane="92_0" slope="0.00"/>
        <vehicle id="14" x="35.13" y="-111.79" angle="359.66" type="DEFAULT_VEHTYPE" speed="0.00" pos="5.10" lane="103_0" slope="0.00"/>
        <vehicle id="2" x="31.15" y="47.34" angle="180.00" type="DEFAULT_VEHTYPE" speed="12.75" pos="125.81" lane="73_0" slope="0.00"/>
        <vehicle id="3" x="184.10" y="57.33" angle="180.72" type="DEFAULT_VEHTYPE" speed="14.55" pos="114.76" lane="84_0" slope="0.00"/>
        <vehicle id="4" x="221.02" y="22.84" angle="270.35" type="DEFAULT_VEHTYPE" speed="13.44" pos="97.70" lane="54_0" slope="0.00"/>
        <vehicle id="5" x="-118.77" y="-32.25" angle="359.78" type="DEFAULT_VEHTYPE" speed="13.21" pos="85.47" lane="92_0" slope="0.00"/>
        <vehicle id="6" x="34.76" y="-49.34" angle="359.66" type="DEFAULT_VEHTYPE" speed="10.51" pos="67.55" lane="103_0" slope="0.00"/>
        <vehicle id="7" x="186.85" y="-56.30" angle="0.00" type="DEFAULT_VEHTYPE" speed="12.94" pos="62.78" lane="114_0" slope="0.00"/>
        <vehicle id="8" x="-229.00" y="21.19" angle="90.42" type="DEFAULT_VEHTYPE" speed="9.92" pos="40.55" lane="12_0" slope="0.00"/>
        <vehicle id="9" x="-121.75" y="136.82" angle="180.21" type="DEFAULT_VEHTYPE" speed="8.95" pos="33.07" lane="62_0" slope="0.00"/>
    </timestep>
    <timestep time="15.00">
        <vehicle id="1" x="-122.14" y="30.68" angle="180.21" type="DEFAULT_VEHTYPE" speed="4.94" pos="139.21" lane="62_0" slope="0.00"/>
        <vehicle id="10" x="31.15" y="135.26" angle="180.00" type="DEFAULT_VEHTYPE" speed="9.47" pos="37.89" lane="73_0" slope="0.00"/>
        <vehicle id="11" x="185.23" y="146.73" angle="180.72" type="DEFAULT_VEHTYPE" speed="8.23" pos="25.35" lane="84_0" slope="0.00"/>
        <vehicle id="12" x="303.59" y="22.33" angle="270.35" type="DEFAULT_VEHTYPE" speed="4.82" pos="15.13" lane="54_0" slope="0.00"/>
        <vehicle id="13" x="-118.48" y="-105.95" angle="359.78" type="DEFAULT_VEHTYPE" speed="4.29" pos="11.77" lane="92_0" slope="0.00"/>
        <vehicle id="14" x="35.12" y="-109.44" angle="359.66" type="DEFAULT_VEHTYPE" speed="2.35" pos="7.45" lane="103_0" slope="0.00"/>
        <vehicle id="15" x="186.85" y="-113.98" angle="0.00" type="DEFAULT_VEHTYPE" speed="0.00" pos="5.10" lane="114_0" slope="0.00"/>
        <vehicle id="2" x="31.15" y="37.30" angle="180.00" type="DEFAULT_VEHTYPE" speed="10.03" pos="135.85" lane="73_0" slope="0.00"/>
        <vehicle id="3" x="183.94" y="44.84" angle="180.72" type="DEFAULT_VEHTYPE" speed="12.50" pos="127.25" lane="84_0" slope="0.00"/>
        <vehicle id="4" x="207.34" y="22.93" angle="270.35" type="DEFAULT_VEHTYPE" speed="13.68" pos="111.38" lane="54_0" slope="0.00"/>
        <vehicle id="5" x="-118.82" y="-19.34" angle="359.78" type="DEFAULT_VEHTYPE" speed="12.91" pos="98.38" lane="92_0" slope="0.00"/>
        <vehicle id="6" x="34.70" y="-39.04" angle="359.66" type="DEFAULT_VEHTYPE" speed="10.30" pos="77.85" lane="103_0" slope="0.00"/>
        <vehicle id="7" x="186.85" y="-44.47" angle="0.00" type="DEFAULT_VEHTYPE" speed="11.83" pos="74.61" lane="114_0" slope="0.00"/>
        <vehicle id="8" x="-217.57" y="21.11" angle="90.42" type="DEFAULT_VEHTYPE" speed="11.43" pos="51.98" lane="12_0" slope="0.00"/>
        <vehicle id="9" x="-121.79" y="125.77" angle="180.21" type="DEFAULT_VEHTYPE" speed="11.06" pos="44.12" lane="62_0" slope="0.00"/>
    </timestep>
    <timestep time="16.00">
        <vehicle id="1" x="-122.15" y="30.24" angle="180.21" type="DEFAULT_VEHTYPE" speed="0.44" pos="139.65" lane="62_0" slope="0.00"/>
        <vehicle id="10" x="31.15" y="124.74" angle="180.00" type="DEFAULT_VEHTYPE" speed="10.52" pos="48.41" lane="73_0" slope="0.00"/>
        <vehicle id="11" x="185.11" y="136.91" angle="180.72" type="DEFAULT_VEHTYPE" speed="9.82" pos="35.17" lane="84_0" slope="0.00"/>
        <vehicle id="12" x="296.56" y="22.38" angle="270.35" type="DEFAULT_VEHTYPE" speed="7.03" pos="22.16" lane="54_0" slope="0.00"/>
        <vehicle id="13" x="-118.50" y="-99.37" angle="359.78" type="DEFAULT_VEHTYPE" speed="6.58" pos="18.34" lane="92_0" slope="0.00"/>
        <vehicle id="14" x="35.09" y="-105.07" angle="359.66" type="DEFAULT_VEHTYPE" speed="4.36" pos="11.82" lane="103_0" slope="0.00"/>
        <vehicle id="15" x="186.85" y="-112.66" angle="0.00" type="DEFAULT_VEHTYPE" speed="1.32" pos="6.42" lane="114_0" slope="0.00"/>
        <vehicle id="16" x="-264.45" y="21.45" angle="90.42" type="DEFAULT_VEHTYPE" speed="0.00" pos="5.10" lane="12_0" slope="0.00"/>
        <vehicle id="2" x="31.15" y="31.77" angle="180.00" type="DEFAULT_VEHTYPE" speed="5.53" pos="141.38" lane="73_0" slope="0.00"/>
        <vehicle id="3" x="183.84" y="36.23" angle="180.72" type="DEFAULT_VEHTYPE" speed="8.61" pos="135.86" lane="84_0" slope="0.00"/>
        <vehicle id="4" x="193.10" y="23.02" angle="270.35" type="DEFAULT_VEHTYPE" speed="14.24" pos="125.62" lane="54_0" slope="0.00"/>
        <vehicle id="5" x="-118.87" y="-5.60" angle="359.78" type="DEFAULT_VEHTYPE" speed="13.74" pos="112.12" lane="92_0" slope="0.00"/>
        <vehicle id="6" x="34.64" y="-28.75" angle="359.66" type="DEFAULT_VEHTYPE" speed="10.30" pos="88.14" lane="103_0" slope="0.00"/>
        <vehicle id="7" x="186.85" y="-32.20" angle="0.00" type="DEFAULT_VEHTYPE" speed="12.27" pos="86.88" lane="114_0" slope="0.00"/>
        <vehicle id="8" x="-204.78" y="21.01" angle="90.42" type="DEFAULT_VEHTYPE" speed="12.79" pos="64.77" lane="12_0" slope="0.00"/>
        <vehicle id="9" x="-121.84" y="112.47" angle="180.21" type="DEFAULT_VEHTYPE" speed="13.30" pos="57.42" lane="62_0" slope="0.00"/>
    </timestep>
    <timestep time="17.00">
        <vehicle id="1" x="-122.15" y="30.23" angle="180.21" type="DEFAULT_VEHTYPE" speed="0.01" pos="139.66" lane="62_0" slope="0.00"/>
        <vehicle id="10" x="31.15" y="114.95" angle="180.00" type="DEFAULT_VEHTYPE" speed="9.79" pos="58.20" lane="73_0" slope="0.00"/>
        <vehicle id="11" x="184.96" y="125.65" angle="180.72" type="DEFAULT_VEHTYPE" speed="11.26" pos="46.43" lane="84_0" slope="0.00"/>
        <vehicle id="12" x="287.32" y="22.43" angle="270.35" type="DEFAULT_VEHTYPE" speed="9.24" pos="31.40" lane="54_0" slope="0.00"/>
        <vehicle id="13" x="-118.54" y="-90.82" angle="359.78" type="DEFAULT_VEHTYPE" speed="8.54" pos="26.89" lane="92_0" slope="0.00"/>
        <vehicle id="14" x="35.05" y="-98.11" angle="359.66" type="DEFAULT_VEHTYPE" speed="6.96" pos="18.78" lane="103_0" slope="0.00"/>
        <vehicle id="15" x="186.85" y="-109.94" angle="0.00" type="DEFAULT_VEHTYPE" speed="2.72" pos="9.14" lane="114_0" slope="0.00"/>
        <vehicle id="16" x="-262.86" y="21.44" angle="90.42" type="DEFAULT_VEHTYPE" speed="1.59" pos="6.69" lane="12_0" slope="0.00"/>
        <vehicle id="17" x="-121.65" y="164.79" angle="180.21" type="DEFAULT_VEHTYPE" speed="0.00" pos="5.10" lane="62_0" slope="0.00"/>
        <vehicle id="2" x="31.15" y="30.73" angle="180.00" type="DEFAULT_VEHTYPE" speed="1.03" pos="142.42" lane="73_0" slope="0.00"/>
        <vehicle id="3" x="183.77" y="30.96" angle="180.72" type="DEFAULT_VEHTYPE" speed="5.27" pos="141.13" lane="84_0" slope="0.00"/>
        <vehicle id="4" x="178.83" y="23.09" angle="270.28" type="DEFAULT_VEHTYPE" speed="14.27" pos="13.65" lane=":J4_4_0" slope="0.00"/>
        <vehicle id="5" x="-118.91" y="4.96" angle="359.78" type="DEFAULT_VEHTYPE" speed="10.56" pos="122.68" lane="92_0" slope="0.00"/>
        <vehicle id="6" x="34.58" y="-17.73" angle="359.66" type="DEFAULT_VEHTYPE" speed="11.02" pos="99.16" lane="103_0" slope="0.00"/>
        <vehicle id="7" x="186.85" y="-19.96" angle="0.00" type="DEFAULT_VEHTYPE" speed="12.23" pos="99.12" lane="114_0" slope="0.00"/>
        <vehicle id="8" x="-190.82" y="20.91" angle="90.42" type="DEFAULT_VEHTYPE" speed="13.97" pos="78.73" lane="12_0" slope="0.00"/>
        <vehicle id="9" x="-121.90" y="97.59" angle="180.21" type="DEFAULT_VEHTYPE" speed="14.87" pos="72.30" lane="62_0" slope="0.00"/>
    </timestep>
    <timestep time="18.00">
        <vehicle id="1" x="-122.15" y="30.22" angle="180.21" type="DEFAULT_VEHTYPE" speed="0.01" pos="139.67" lane="62_0" slope="0.00"/>
        <vehicle id="10" x="31.15" y="105.02" angle="180.00" type="DEFAULT_VEHTYPE" speed="9.92" pos="68.13" lane="73_0" slope="0.00"/>
        <vehicle id="11" x="184.79" y="111.97" angle="180.72" type="DEFAULT_VEHTYPE" speed="13.69" pos="60.12" lane="84_0" slope="0.00"/>
        <vehicle id="12" x="276.41" y="22.50" angle="270.35" type="DEFAULT_VEHTYPE" speed="10.91" pos="42.31" lane="54_0" slope="0.00"/>
        <vehicle id="13" x="-118.57" y="-80.92" angle="359.78" type="DEFAULT_VEHTYPE" speed="9.90" pos="36.79" lane="92_0" slope="0.00"/>
        <vehicle id="14" x="35.00" y="-88.75" angle="359.66" type="DEFAULT_VEHTYPE" speed="9.36" pos="28.14" lane="103_0" slope="0.00"/>
        <vehicle id="15" x="186.85" y="-105.10" angle="0.00" type="DEFAULT_VEHTYPE" speed="4.84" pos="13.98" lane="114_0" slope="0.00"/>
        <vehicle id="16" x="-258.69" y="21.41" angle="90.42" type="DEFAULT_VEHTYPE" speed="4.17" pos="10.86" lane="12_0" slope="0.00"/>
        <vehicle id="17" x="-121.66" y="162.83" angle="180.21" type="DEFAULT_VEHTYPE" speed="1.96" pos="7.06" lane="62_0" slope="0.00"/>
        <vehicle id="18" x="31.15" y="168.05" angle="180.00" type="DEFAULT_VEHTYPE" speed="0.00" pos="5.10" lane="73_0" slope="0.00"/>
        <vehicle id="2" x="31.15" y="30.26" angle="180.00" type="DEFAULT_VEHTYPE" speed="0.48" pos="142.89" lane="73_0" slope="0.00"/>
        <vehicle id="3" x="183.76" y="30.05" angle="180.72" type="DEFAULT_VEHTYPE" speed="0.91" pos="142.04" lane="84_0" slope="0.00"/>
        <vehicle id="4" x="164.41" y="23.14" angle="270.20" type="DEFAULT_VEHTYPE" speed="14.43" pos="13.66" lane="43_0" slope="0.00"/>
        <vehicle id="5" x="-118.94" y="11.16" angle="359.78" type="DEFAULT_VEHTYPE" speed="6.20" pos="128.88" lane="92_0" slope="0.00"/>
        <vehicle id="6" x="34.51" y="-6.31" angle="359.66" type="DEFAULT_VEHTYPE" speed="11.42" pos="110.58" lane="103_0" slope="0.00"/>
        <vehicle id="7" x="186.85" y="-7.23" angle="0.00" type="DEFAULT_VEHTYPE" speed="12.73" pos="111.85" lane="114_0" slope="0.00"/>
        <vehicle id="8" x="-176.78" y="20.81" angle="90.42" type="DEFAULT_VEHTYPE" speed="14.03" pos="92.77" lane="12_0" slope="0.00"/>
        <vehicle id="9" x="-121.95" y="82.53" angle="180.21" type="DEFAULT_VEHTYPE" speed="15.06" pos="87.36" lane="62_0" slope="0.00"/>
    </timestep>
    <timestep time="19.00">
        <vehicle id="1" x="-122.15" y="30.22" angle="180.21" type="DEFAULT_VEHTYPE" speed="0.00" pos="139.67" lane="62_0" slope="0.00"/>
        <vehicle id="10" x="31.15" y="95.15" angle="180.00" type="DEFAULT_VEHTYPE" speed="9.87" pos="78.00" lane="73_0" slope="0.00"/>
        <vehicle id="11" x="184.63" y="99.26" angle="180.72" type="DEFAULT_VEHTYPE" speed="12.71" pos="72.83" lane="84_0" slope="0.00"/>
        <vehicle id="12" x="263.45" y="22.58" angle="270.35" type="DEFAULT_VEHTYPE" speed="12.96" pos="55.27" lane="54_0" slope="0.00"/>
        <vehicle id="13" x="-118.62" y="-69.04" angle="359.78" type="DEFAULT_VEHTYPE" speed="11.88" pos="48.67" lane="92_0" slope="0.00"/>
        <vehicle id="14" x="34.93" y="-77.57" angle="359.66" type="DEFAULT_VEHTYPE" speed="11.19" pos="39.32" lane="103_0" slope="0.00"/>
        <vehicle id="15" x="186.85" y="-98.88" angle="0.00" type="DEFAULT_VEHTYPE" speed="6.22" pos="20.20" lane="114_0" slope="0.00"/>
        <vehicle id="16" x="-253.16" y="21.37" angle="90.42" type="DEFAULT_VEHTYPE" speed="5.53" pos="16.39" lane="12_0" slope="0.00"/>
        <vehicle id="17" x="-121.67" y="159.08" angle="180.21" type="DEFAULT_VEHTYPE" speed="3.76" pos="10.81" lane="62_0" slope="0.00"/>
        <vehicle id="18" x="31.15" y="165.59" angle="180.00" type="DEFAULT_VEHTYPE" speed="2.46" pos="7.56" lane="73_0" slope="0.00"/>
        <vehicle id="19" x="185.49" y="166.98" angle="180.72" type="DEFAULT_VEHTYPE" speed="0.00" pos="5.10" lane="84_0" slope="0.00"/>
        <vehicle id="2" x="31.15" y="30.21" angle="180.00" type="DEFAULT_VEHTYPE" speed="0.05" pos="142.94" lane="73_0" slope="0.00"/>
        <vehicle id="3" x="183.75" y="29.76" angle="180.72" type="DEFAULT_VEHTYPE" speed="0.29" pos="142.33" lane="84_0" slope="0.00"/>
        <vehicle id="4" x="150.81" y="23.18" angle="270.20" type="DEFAULT_VEHTYPE" speed="13.60" pos="27.26" lane="43_0" slope="0.00"/>
        <vehicle id="5" x="-118.94" y="13.15" angle="359.78" type="DEFAULT_VEHTYPE" speed="1.99" pos="130.87" lane="92_0" slope="0.00"/>
        <vehicle id="6" x="34.45" y="4.26" angle="359.66" type="DEFAULT_VEHTYPE" speed="10.56" pos="121.15" lane="103_0" slope="0.00"/>
        <vehicle id="7" x="186.85" y="2.90" angle="0.00" type="DEFAULT_VEHTYPE" speed="10.13" pos="121.98" lane="114_0" slope="0.00"/>
        <vehicle id="8" x="-162.25" y="20.70" angle="90.42" type="DEFAULT_VEHTYPE" speed="14.54" pos="107.30" lane="12_0" slope="0.00"/>
        <vehicle id="9" x="-122.01" y="68.03" angle="180.21" type="DEFAULT_VEHTYPE" speed="14.50" pos="101.86" lane="62_0" slope="0.00"/>
    </timestep>
    <timestep time="20.00">
        <vehicle id="1" x="-122.15" y="30.22" angle="180.21" type="DEFAULT_VEHTYPE" speed="0.00" pos="139.67" lane="62_0" slope="0.00"/>
        <vehicle id="10" x="31.15" y="84.84" angle="180.00" type="DEFAULT_VEHTYPE" speed="10.32" pos="88.31" lane="73_0" slope="0.00"/>
        <vehicle id="11" x="184.46" y="85.51" angle="180.72" type="DEFAULT_VEHTYPE" speed="13.75" pos="86.58" lane="84_0" slope="0.00"/>
        <vehicle id="12" x="249.34" y="22.67" angle="270.35" type="DEFAULT_VEHTYPE" speed="14.11" pos="69.38" lane="54_0" slope="0.00"/>
        <vehicle id="13" x="-118.66" y="-58.15" angle="359.78" type="DEFAULT_VEHTYPE" speed="10.90" pos="59.57" lane="92_0" slope="0.00"/>
        <vehicle id="14" x="34.85" y="-64.70" angle="359.66" type="DEFAULT_VEHTYPE" speed="12.86" pos="52.19" lane="103_0" slope="0.00"/>
        <vehicle id="15" x="186.85" y="-90.49" angle="0.00" type="DEFAULT_VEHTYPE" speed="8.38" pos="28.59" lane="114_0" slope="0.00"/>
        <vehicle id="16" x="-245.05" y="21.31" angle="90.42" type="DEFAULT_VEHTYPE" speed="8.10" pos="24.50" lane="12_0" slope="0.00"/>
        <vehicle id="17" x="-121.69" y="153.99" angle="180.21" type="DEFAULT_VEHTYPE" speed="5.09" pos="15.90" lane="62_0" slope="0.00"/>
        <vehicle id="18" x="31.15" y="160.93" angle="180.00" type="DEFAULT_VEHTYPE" speed="4.66" pos="12.22" lane="73_0" slope="0.00"/>
        <vehicle id="19" x="185.47" y="165.40" angle="180.72" type="DEFAULT_VEHTYPE" speed="1.58" pos="6.68" lane="84_0" slope="0.00"/>
        <vehicle id="2" x="31.15" y="30.20" angle="180.00" type="DEFAULT_VEHTYPE" speed="0.01" pos="142.95" lane="73_0" slope="0.00"/>
        <vehicle id="20" x="313.62" y="22.27" angle="270.35" type="DEFAULT_VEHTYPE" speed="0.00" pos="5.10" lane="54_0" slope="0.00"/>
        <vehicle id="3" x="183.75" y="29.71" angle="180.72" type="DEFAULT_VEHTYPE" speed="0.06" pos="142.38" lane="84_0" slope="0.00"/>
        <vehicle id="4" x="136.46" y="23.23" angle="270.20" type="DEFAULT_VEHTYPE" speed="14.34" pos="41.61" lane="43_0" slope="0.00"/>