<?xml version="1.0" encoding="iso-8859-1"?>
        
        <configuration xmlns:xsi="http://www.w3.org/2001/XMLSchema-instance" xsi:noNamespaceSchemaLocation="http://sumo.dlr.de/xsd/duarouterConfiguration.xsd">
        
            <input>
                <net-file value="../3intersections_gt.net.xml"/>
                <route-files value="../routes.rou.xml"/>
        	<additional-files value="additional.xml"/>
            </input>
         <output>
                <tripinfo-output value="tripinfo_out_gt.xml"/>
                <summary-output value="summary_out_gt.xml"/>
                <edgedata-output value="travel-times-output_gt.xml"/>
        
            </output>
        
            <time>
                <begin value="0"/>
                <end value="1800"/>
            </time>
        
            
            
            <step-length value="1.0"/>
        
        
        </configuration>